Object1
-5.506224155426025 -0.492242157459259 0 -1.603555917739868 -0.492242157459259 0 -5.506224155426025 -0.492242157459259 3.55404806137085
-1.603555917739868 -0.492242157459259 0 2.299112319946289 -0.492242157459259 0 2.299112319946289 -0.492242157459259 3.55404806137085
2.299112319946289 -0.492242157459259 7.108096122741699 -1.603555917739868 -0.492242157459259 7.108096122741699 2.299112319946289 -0.492242157459259 3.55404806137085
-1.603555917739868 -0.492242157459259 7.108096122741699 -5.506224155426025 -0.492242157459259 7.108096122741699 -5.506224155426025 -0.492242157459259 3.55404806137085
-5.506224155426025 -0.492242157459259 3.55404806137085 -1.603555917739868 -0.492242157459259 0 -1.603555917739868 -0.492242157459259 7.108096122741699
-1.603555917739868 -0.492242157459259 0 2.299112319946289 -0.492242157459259 3.55404806137085 -1.603555917739868 -0.492242157459259 7.108096122741699
2.299112319946289 -0.492242157459259 0 2.299112319946289 3.144003868103027 0 2.299112319946289 -0.492242157459259 3.55404806137085
2.299112319946289 3.144003868103027 0 2.299112319946289 6.780250072479248 0 2.299112319946289 6.780250072479248 3.55404806137085
2.299112319946289 6.780250072479248 7.108096122741699 2.299112319946289 3.144003868103027 7.108096122741699 2.299112319946289 6.780250072479248 3.55404806137085
2.299112319946289 3.144003868103027 7.108096122741699 2.299112319946289 -0.492242157459259 7.108096122741699 2.299112319946289 -0.492242157459259 3.55404806137085
2.299112319946289 -0.492242157459259 3.55404806137085 2.299112319946289 3.144003868103027 0 2.299112319946289 3.144003868103027 7.108096122741699
2.299112319946289 3.144003868103027 0 2.299112319946289 6.780250072479248 3.55404806137085 2.299112319946289 3.144003868103027 7.108096122741699
2.299112319946289 6.780250072479248 0 -1.603555917739868 6.780250072479248 0 2.299112319946289 6.780250072479248 3.55404806137085
-1.603555917739868 6.780250072479248 0 -5.506224155426025 6.780250072479248 0 -5.506224155426025 6.780250072479248 3.55404806137085
-5.506224155426025 6.780250072479248 7.108096122741699 -1.603555917739868 6.780250072479248 7.108096122741699 -5.506224155426025 6.780250072479248 3.55404806137085
-1.603555917739868 6.780250072479248 7.108096122741699 2.299112319946289 6.780250072479248 7.108096122741699 2.299112319946289 6.780250072479248 3.55404806137085
2.299112319946289 6.780250072479248 3.55404806137085 -1.603555917739868 6.780250072479248 0 -1.603555917739868 6.780250072479248 7.108096122741699
-1.603555917739868 6.780250072479248 0 -5.506224155426025 6.780250072479248 3.55404806137085 -1.603555917739868 6.780250072479248 7.108096122741699
-5.506224155426025 6.780250072479248 0 -5.506224155426025 3.144003868103027 0 -5.506224155426025 6.780250072479248 3.55404806137085
-5.506224155426025 3.144003868103027 0 -5.506224155426025 -0.492242157459259 0 -5.506224155426025 -0.492242157459259 3.55404806137085
-5.506224155426025 -0.492242157459259 7.108096122741699 -5.506224155426025 3.144003868103027 7.108096122741699 -5.506224155426025 -0.492242157459259 3.55404806137085
-5.506224155426025 3.144003868103027 7.108096122741699 -5.506224155426025 6.780250072479248 7.108096122741699 -5.506224155426025 6.780250072479248 3.55404806137085
-5.506224155426025 6.780250072479248 3.55404806137085 -5.506224155426025 3.144003868103027 0 -5.506224155426025 3.144003868103027 7.108096122741699
-5.506224155426025 3.144003868103027 0 -5.506224155426025 -0.492242157459259 3.55404806137085 -5.506224155426025 3.144003868103027 7.108096122741699
2.299112319946289 -0.492242157459259 0 -1.603555917739868 -0.492242157459259 0 2.299112319946289 3.144003868103027 0
-1.603555917739868 -0.492242157459259 0 -5.506224155426025 -0.492242157459259 0 -5.506224155426025 3.144003868103027 0
2.299112319946289 6.780250072479248 0 2.299112319946289 3.144003868103027 0 -1.603555917739868 6.780250072479248 0
-5.506224155426025 6.780250072479248 0 -1.603555917739868 6.780250072479248 0 -5.506224155426025 3.144003868103027 0
2.299112319946289 3.144003868103027 0 -1.603555917739868 -0.492242157459259 0 -1.603555917739868 6.780250072479248 0
-1.603555917739868 -0.492242157459259 0 -5.506224155426025 3.144003868103027 0 -1.603555917739868 6.780250072479248 0
-5.506224155426025 -0.492242157459259 7.108096122741699 -1.603555917739868 -0.492242157459259 7.108096122741699 -5.506224155426025 3.144003868103027 7.108096122741699
-1.603555917739868 -0.492242157459259 7.108096122741699 2.299112319946289 -0.492242157459259 7.108096122741699 2.299112319946289 3.144003868103027 7.108096122741699
2.299112319946289 3.144003868103027 7.108096122741699 2.299112319946289 6.780250072479248 7.108096122741699 -1.603555917739868 6.780250072479248 7.108096122741699
-1.603555917739868 6.780250072479248 7.108096122741699 -5.506224155426025 6.780250072479248 7.108096122741699 -5.506224155426025 3.144003868103027 7.108096122741699
-5.506224155426025 3.144003868103027 7.108096122741699 -1.603555917739868 -0.492242157459259 7.108096122741699 -1.603555917739868 6.780250072479248 7.108096122741699
-1.603555917739868 -0.492242157459259 7.108096122741699 2.299112319946289 3.144003868103027 7.108096122741699 -1.603555917739868 6.780250072479248 7.108096122741699
